HEADER
"PSFversion" "1.00"
"design" "// "
"analysis type" "dc"
"analysis name" "dcOp"
"analysis description" "DC Analysis `dcOp'"
TYPE
"V" FLOAT DOUBLE PROP(
"units" "V"
"key" "node"
"tolerance" 1.00000e-06
)
"I" FLOAT DOUBLE PROP(
"units" "A"
"key" "branch"
"tolerance" 1.00000e-12
)
VALUE
"VDD" "V" 1.0000E+00
"VIN" "V" 1.0000E-01
"VM" "V" 5.1787E-02
"XOPAMP.N2" "V" 5.3836E-02
"XOPAMP.N8" "V" 1.9103E-02
"XOPAMP.N3" "V" 5.6376E-02
"XOPAMP.VBIAS1" "V" 9.9990E-01
"XOPAMP.VHIGH" "V" 9.9923E-01
"XOPAMP.N13" "V" 9.9778E-01
"XOPAMP.XBIAS.VP3" "V" 9.9778E-01
"XOPAMP.VBIAS2" "V" 9.9851E-01
"XOPAMP.VNCAS" "V" 9.9989E-03
"XOPAMP.N4" "V" 8.1021E-03
"XOPAMP.N6" "V" 9.9991E-01
"XOPAMP.N5" "V" 9.9923E-01
"XOPAMP.N7" "V" 9.9922E-01
"XOPAMP.N9" "V" 9.9922E-01
"XOPAMP.N1" "V" 9.9483E-01
"XOPAMP.N10" "V" 7.2454E-04
"VOUT" "V" 5.1990E-03
"XOPAMP.XBIAS.VP2" "V" 1.0000E+00
"XOPAMP.XBIAS.VP1" "V" 9.9928E-01
"XOPAMP.XBIAS.VN4" "V" 2.1660E-08
"XOPAMP.XBIAS.VN5" "V" 6.8466E-04
"XOPAMP.VBIAS3" "V" 1.8695E-03
"XOPAMP.VPCAS" "V" 9.9807E-01
"XOPAMP.VBIAS4" "V" 1.7958E-03
"XOPAMP.VLOW" "V" 1.4692E-03
"XOPAMP.N12" "V" 2.0481E-03
"XOPAMP.N11" "V" 1.4125E-03
"XOPAMP.XBIAS.VN1" "V" 3.3212E-02
"XOPAMP.XBIAS.VN2" "V" 3.3221E-02
"XOPAMP.XBIAS.VN3" "V" 3.3252E-02
"XOPAMP.XBIAS.VBIASP" "V" 9.9474E-01
"XOPAMP.XBIAS.VREG" "V" 3.0328E-03
"XOPAMP.XBIAS.VAMP" "V" 9.9985E-01
"XOPAMP.XBIAS.VR" "V" 4.6199E-10
"XOPAMP.XBIAS.VBIASN" "V" 5.0585E-03
"XOPAMP.XBIAS.VSUR" "V" 1.2552E-04
"VDD" "I" -1.6389E-06
"VIN" "I" -5.0815E-06
END
