HEADER
"PSFversion" "1.00"
"analysis type" "info"
"analysis name" "dcOpInfo"
"analysis description" "Circuit Information"
"AnalysisName" "DC"
"AnalysisType" "dcOp"
TYPE
"bsim3v3" STRUCT(
"region" INT BYTE PROP(
"description" "Estimated operating region"
)
"id" FLOAT DOUBLE PROP(
"units" "A"
"description" "Resistive drain current"
)
"ibs" FLOAT DOUBLE PROP(
"units" "A"
"description" "Bulk-to-source DC current"
)
"ibd" FLOAT DOUBLE PROP(
"units" "A"
"description" "Bulk-to-drain DC current"
)
"vgs" FLOAT DOUBLE PROP(
"units" "V"
"description" "Gate-source voltage"
)
"vds" FLOAT DOUBLE PROP(
"units" "V"
"description" "Drain-source voltage"
)
"vbs" FLOAT DOUBLE PROP(
"units" "V"
"description" "Bulk-source voltage"
)
"vth" FLOAT DOUBLE PROP(
"units" "V"
"description" "Threshold voltage (alias=lv9)"
)
"vdsat" FLOAT DOUBLE PROP(
"units" "V"
"description" "Drain-source saturation voltage (alias=lv10)"
)
"vod" FLOAT DOUBLE PROP(
"description" ""
)
"beta" FLOAT DOUBLE PROP(
"description" "Impact-ionization exponential factor"
)
"gam eff" FLOAT DOUBLE PROP(
"description" ""
)
"gm" FLOAT DOUBLE PROP(
"units" "S"
"description" "Common-source transconductance (alias=lx7)"
)
"gds" FLOAT DOUBLE PROP(
"units" "S"
"description" "Common-source output conductance (alias=lx8)"
)
"gmb" FLOAT DOUBLE PROP(
"description" ""
)
"cdtot" FLOAT DOUBLE PROP(
"description" ""
)
"cgtot" FLOAT DOUBLE PROP(
"description" ""
)
"cstot" FLOAT DOUBLE PROP(
"description" ""
)
"cbtot" FLOAT DOUBLE PROP(
"description" ""
)
"cgs" FLOAT DOUBLE PROP(
"units" "F"
"description" "Total gate-to-source capacitance, including intrinsic, overlap, and fringing components (alias=lx84)"
)
"cgd" FLOAT DOUBLE PROP(
"units" "F"
"description" "Total gate-to-drain capacitance, including intrinsic, overlap, and fringing components (alias=lx83)"
)
) PROP(
"key" "inst"
)
"capacitor" STRUCT(
"cap" FLOAT DOUBLE PROP(
"units" "F"
"description" "Capacitance at operating point"
)
) PROP(
"key" "inst"
)
"resistor" STRUCT(
"res" FLOAT DOUBLE PROP(
"units" "Ohm"
"description" "Resistance at operating point"
)
"vdrop" FLOAT DOUBLE PROP(
"units" "V"
"description" "Voltage drop"
)
"i" FLOAT DOUBLE PROP(
"units" "A"
"description" "Current through the resistor"
)
"pwr" FLOAT DOUBLE PROP(
"units" "W"
"description" "Power dissipation"
)
) PROP(
"key" "inst"
)
"vsource" STRUCT(
"v" FLOAT DOUBLE PROP(
"units" "V"
"description" "Voltage across the source"
)
"i" FLOAT DOUBLE PROP(
"units" "A"
"description" "Current through the source"
)
"pwr" FLOAT DOUBLE PROP(
"units" "W"
"description" "Power dissipation"
)
) PROP(
"key" "inst"
)
VALUE
"Xopamp.M1B" "bsim3v3" (
1
7.87E-10
-7.84E-15
-7.84E-15
9.9606
9.64E-07
-0.039422
5.4262
1.2625
4.5344
0.00019209
0.25612
7.76E-11
0.00081621
6.12E-10
3.25E-15
5.15E-15
2.66E-15
9.86E-16
2.65E-15
2.56E-15
) PROP(
"model" "n_50n"
)
"Xopamp.M1T" "bsim3v3" (
0
7.82E-10
-7.84E-15
-4.88E-06
4.7462
4.6025
-0.039423
5.1219
0.017421
-0.37574
0.00039093
0.25612
1.62E-08
1.23E-09
4.03E-08
2.33E-15
4.99E-15
2.36E-15
3.05E-16
2.36E-15
2.33E-15
) PROP(
"model" "n_50n"
)
"Xopamp.M2B" "bsim3v3" (
0
0
-7.84E-15
-1.00E-14
0.96058
1.0162
-0.039422
5.359
0.017396
-4.3984
0.00036241
0.25612
0
0
0
2.25E-15
5.04E-15
2.36E-15
4.35E-16
2.36E-15
2.25E-15
) PROP(
"model" "n_50n"
)
"Xopamp.M2T" "bsim3v3" (
0
0
-1.00E-14
-1.00E-14
3.7299
3.1476
-1.0557
7.3178
0.022401
-3.5878
0.00020973
0.21225
0
0
0
2.35E-15
5.01E-15
2.36E-15
3.05E-16
2.36E-15
2.35E-15
) PROP(
"model" "n_50n"
)
"Xopamp.MCM" "bsim3v3" (
2
1.40E-06
-7.84E-15
-0.00137
4.7462
4.7462
-0.039422
3.9457
0.18899
0.80044
1.60E-05
0.25612
3.00E-06
5.13E-08
8.16E-06
4.48E-16
1.43E-15
1.21E-15
8.71E-16
9.96E-16
4.48E-16
) PROP(
"model" "n_50n"
)
"Xopamp.M6T" "bsim3v3" (
1
1.40E-06
-5.52E-15
-7.85E-15
5.4711
0.018774
-0.020647
5.3797
0.051759
0.091444
0.0010656
0.25712
1.25E-05
5.83E-05
3.11E-05
7.44E-15
1.54E-14
8.60E-15
2.25E-15
8.15E-15
7.15E-15
) PROP(
"model" "n_50n"
)
"Xopamp.M6B" "bsim3v3" (
1
1.40E-06
0
-5.53E-15
5.4116
0.020647
0
5.3294
0.049105
0.082202
0.0010836
0.25824
1.32E-05
5.04E-05
3.30E-05
7.37E-15
1.54E-14
8.55E-15
2.18E-15
8.10E-15
7.13E-15
) PROP(
"model" "n_50n"
)
"Xopamp.M8T" "bsim3v3" (
2
8.23E-07
-9.06E-15
-1.52E-09
5.431
1.5094
-0.060814
5.3775
0.043785
0.053486
0.00035595
0.25498
1.06E-05
8.68E-07
2.56E-05
2.35E-15
5.08E-15
2.75E-15
5.52E-16
2.63E-15
2.35E-15
) PROP(
"model" "n_50n"
)
"Xopamp.M8B" "bsim3v3" (
1
8.23E-07
0
-9.10E-15
5.4116
0.060814
0
5.3268
0.049734
0.084857
0.00036042
0.25824
9.32E-06
3.74E-06
2.31E-05
2.37E-15
5.10E-15
2.85E-15
6.55E-16
2.70E-15
2.35E-15
) PROP(
"model" "n_50n"
)
"Xopamp.MFCN" "bsim3v3" (
2
8.24E-07
-1.00E-14
-1.49E-05
8.4293
2.633
-1.5702
8.2576
0.096797
0.17174
8.22E-05
0.19469
7.72E-06
6.02E-07
1.34E-05
1.17E-15
2.55E-15
1.41E-15
2.15E-16
1.40E-15
1.17E-15
) PROP(
"model" "n_50n"
)
"Xopamp.MON" "bsim3v3" (
0
0
0
-1.00E-14
1.5702
10
0
4.6697
0.017075
-3.0996
0.0045641
0.25824
0
0
0
1.82E-14
4.60E-14
2.36E-14
4.08E-15
2.36E-14
1.82E-14
) PROP(
"model" "n_50n"
)
"Xopamp.M3B" "bsim3v3" (
0
-5.98E-10
1.00E-14
4.88E-06
-5.1036
-5.0241
0.33402
-5.5237
-0.025093
0.42007
0.00022261
0.28156
1.06E-08
2.66E-09
2.54E-08
4.07E-15
8.76E-15
4.07E-15
6.22E-16
4.07E-15
4.07E-15
) PROP(
"model" "p_50n"
)
"Xopamp.M3T" "bsim3v3" (
0
-6.02E-10
0
1.00E-14
-5.3581
-0.33402
0
-5.7382
-0.022102
0.38003
0.00021006
0.29824
9.84E-09
2.27E-09
2.65E-08
4.07E-15
8.77E-15
4.07E-15
6.25E-16
4.07E-15
4.07E-15
) PROP(
"model" "p_50n"
)
"Xopamp.M5T" "bsim3v3" (
0
-1.77E-07
0
1.01E-14
-5.7491
-0.2307
0
-5.7609
-0.039901
0.011749
0.00020764
0.29824
2.52E-06
5.91E-07
6.59E-06
4.06E-15
8.82E-15
4.52E-15
9.40E-16
4.33E-15
4.06E-15
) PROP(
"model" "p_50n"
)
"Xopamp.M5B" "bsim3v3" (
0
-1.77E-07
1.00E-14
0.0013713
-5.2069
-4.9837
0.2307
-5.2899
-0.033332
0.082992
0.00023687
0.28643
2.72E-06
6.92E-07
6.60E-06
4.07E-15
8.78E-15
4.21E-15
7.22E-16
4.14E-15
4.07E-15
) PROP(
"model" "p_50n"
)
"Xopamp.M4T" "bsim3v3" (
0
-6.71E-10
0
1.00E-14
-5.3581
-0.36272
0
-5.7318
-0.022114
0.37372
0.00021042
0.29824
1.09E-08
2.53E-09
2.94E-08
4.07E-15
8.77E-15
4.07E-15
6.25E-16
4.07E-15
4.07E-15
) PROP(
"model" "p_50n"
)
"Xopamp.M4B" "bsim3v3" (
0
-6.67E-10
1.00E-14
7.85E-06
-5.0749
-5.4341
0.36272
-5.4996
-0.02532
0.42469
0.00022408
0.28024
1.19E-08
3.02E-09
2.83E-08
4.07E-15
8.76E-15
4.07E-15
6.22E-16
4.07E-15
4.07E-15
) PROP(
"model" "p_50n"
)
"Xopamp.M9T" "bsim3v3" (
0
-6.71E-10
0
1.00E-14
-5.3581
-0.36272
0
-5.7318
-0.022114
0.37372
0.00021042
0.29824
1.09E-08
2.53E-09
2.94E-08
4.07E-15
8.77E-15
4.07E-15
6.25E-16
4.07E-15
4.07E-15
) PROP(
"model" "p_50n"
)
"Xopamp.M9B" "bsim3v3" (
0
-6.67E-10
1.00E-14
7.85E-06
-5.0749
-5.4341
0.36272
-5.4996
-0.02532
0.42469
0.00022408
0.28024
1.19E-08
3.02E-09
2.83E-08
4.07E-15
8.76E-15
4.07E-15
6.22E-16
4.07E-15
4.07E-15
) PROP(
"model" "p_50n"
)
"Xopamp.MFCP" "bsim3v3" (
0
0
1.00E-14
1.00E-14
-4.2032
-2.633
5.7968
-14.89
-0.048313
10.687
2.03E-05
0.13235
0
0
0
2.03E-15
4.32E-15
2.03E-15
2.52E-16
2.03E-15
2.03E-15
) PROP(
"model" "p_50n"
)
"Xopamp.MOP" "bsim3v3" (
0
-2.00E-11
0
1.27E-19
-5.7968
-3.25E-07
0
-5.8116
-0.039341
0.014825
0.0020527
0.29824
2.22E-10
6.16E-05
5.88E-10
4.30E-14
8.85E-14
4.49E-14
1.12E-14
4.33E-14
4.13E-14
) PROP(
"model" "p_50n"
)
"Xopamp.Xbias.MP1" "bsim3v3" (
2
-2.72E-06
0
0.010952
-4.957
-4.5082
0
-4.8202
-0.080151
-0.13686
0.00026657
0.29824
2.66E-05
7.03E-06
7.04E-05
4.03E-15
8.94E-15
5.27E-15
1.59E-15
4.67E-15
4.04E-15
) PROP(
"model" "p_50n"
)
"Xopamp.Xbias.MP2" "bsim3v3" (
2
-3.34E-06
0
0.014931
-4.957
-4.5884
0
-4.8025
-0.086385
-0.15449
0.00026738
0.29824
3.08E-05
8.26E-06
8.15E-05
4.02E-15
8.95E-15
5.30E-15
1.62E-15
4.68E-15
4.04E-15
) PROP(
"model" "p_50n"
)
"Xopamp.Xbias.MP3" "bsim3v3" (
0
0
0
1.00E-14
-2.66
-0.66
0
-5.6665
-0.021994
3.0065
0.00021415
0.29824
6.18E-28
1.42E-28
2.10E-27
4.07E-15
8.90E-15
4.07E-15
7.54E-16
4.07E-15
4.07E-15
) PROP(
"model" "p_50n"
)
"Xopamp.Xbias.MP4" "bsim3v3" (
0
-1.17E-24
1.00E-14
1.00E-14
-4.7776
-2
0.66
-6.9095
-0.027494
2.1319
0.00015665
0.26745
2.22E-23
5.05E-24
5.33E-23
4.07E-15
8.76E-15
4.07E-15
6.22E-16
4.07E-15
4.07E-15
) PROP(
"model" "p_50n"
)
"Xopamp.Xbias.MP5" "bsim3v3" (
0
-2.04E-25
1.00E-14
1.00E-14
-7.34
-7.34
2.66
-9.3507
-0.037592
2.0107
9.41E-05
0.20287
4.46E-24
1.09E-24
7.53E-24
4.07E-15
8.65E-15
4.07E-15
5.04E-16
4.07E-15
4.07E-15
) PROP(
"model" "p_50n"
)
"Xopamp.Xbias.MP6" "bsim3v3" (
2
-2.21E-06
0
0.0043127
-5.4376
-5.4376
0
-4.2267
-0.37361
-1.2109
8.59E-06
0.29824
3.14E-06
2.53E-07
9.47E-06
8.05E-16
2.63E-15
2.44E-15
2.02E-15
1.80E-15
8.05E-16
) PROP(
"model" "p_50n"
)
"Xopamp.Xbias.MP7" "bsim3v3" (
0
-1.99E-07
0
1.01E-14
-5.7491
-0.26603
0
-5.7531
-0.041317
0.0039802
0.00020798
0.29824
2.80E-06
6.55E-07
7.33E-06
4.05E-15
8.83E-15
4.56E-15
9.73E-16
4.36E-15
4.06E-15
) PROP(
"model" "p_50n"
)
"Xopamp.Xbias.MP8" "bsim3v3" (
0
-1.99E-07
1.00E-14
0.002413
-5.1716
-5.4831
0.26603
-5.2639
-0.032734
0.092359
0.00023868
0.28474
3.08E-06
7.97E-07
7.41E-06
4.07E-15
8.78E-15
4.18E-15
7.05E-16
4.13E-15
4.07E-15
) PROP(
"model" "p_50n"
)
"Xopamp.Xbias.MP9" "bsim3v3" (
0
-1.73E-11
0
1.92E-18
-5.7491
-4.94E-06
0
-5.8116
-0.032437
0.062485
0.00020534
0.29824
2.15E-10
3.51E-06
5.70E-10
4.18E-15
8.80E-15
4.28E-15
8.68E-16
4.20E-15
4.10E-15
) PROP(
"model" "p_50n"
)
"Xopamp.Xbias.MP10" "bsim3v3" (
0
-1.73E-11
1.92E-18
1.96E-16
-5.4376
-0.00050288
4.94E-06
-5.8115
-0.022114
0.37391
0.00020601
0.29824
2.82E-10
3.41E-08
7.63E-10
4.07E-15
8.76E-15
4.07E-15
6.23E-16
4.07E-15
4.07E-15
) PROP(
"model" "p_50n"
)
"Xopamp.Xbias.MN1" "bsim3v3" (
2
4.83E-06
0
-0.01095
5.4918
5.4918
0
3.8473
0.36725
1.6445
1.43E-05
0.25824
4.67E-06
1.45E-07
1.39E-05
4.48E-16
1.43E-15
1.22E-15
8.79E-16
1.01E-15
4.48E-16
) PROP(
"model" "n_50n"
)
"Xopamp.Xbias.MN2" "bsim3v3" (
2
9.70E-07
-9.97E-15
-0.014933
5.346
5.2659
-0.14575
5.3279
0.037937
0.018118
0.00036272
0.25062
1.34E-05
1.09E-06
3.17E-05
2.31E-15
5.01E-15
2.62E-15
4.64E-16
2.54E-15
2.31E-15
) PROP(
"model" "p_50n"
)
"Xopamp.Xbias.MN3" "bsim3v3" (
2
9.70E-07
0
-1.01E-14
5.4116
0.14575
0
5.3212
0.051082
0.090472
0.00036082
0.25824
1.13E-05
1.15E-06
2.80E-05
2.35E-15
5.10E-15
2.86E-15
6.39E-16
2.70E-15
2.35E-15
) PROP(
"model" "n_50n"
)
"Xopamp.Xbias.MN4" "bsim3v3" (
1
1.74E-11
-2.35E-19
-3.69E-19
5.4918
3.46E-07
-6.02E-07
5.3308
0.069678
0.16099
0.0003565
0.25824
1.01E-10
5.01E-05
2.58E-10
2.82E-15
5.14E-15
2.85E-15
9.78E-16
2.73E-15
2.46E-15
) PROP(
"model" "n_50n"
)
"Xopamp.Xbias.MN5" "bsim3v3" (
1
1.74E-11
0
-2.35E-19
5.4116
6.02E-07
0
5.3308
0.048784
0.080837
0.00036013
0.25824
1.41E-10
2.88E-05
3.58E-10
2.66E-15
5.12E-15
2.80E-15
8.50E-16
2.68E-15
2.42E-15
) PROP(
"model" "n_50n"
)
"Xopamp.Xbias.MN6" "bsim3v3" (
2
9.47E-07
-9.93E-15
-0.004314
5.3653
4.4359
-0.12647
5.3382
0.039388
0.027074
0.00036126
0.25159
1.28E-05
1.02E-06
3.05E-05
2.35E-15
5.06E-15
2.65E-15
4.86E-16
2.56E-15
2.35E-15
) PROP(
"model" "n_50n"
)
"Xopamp.Xbias.MN7" "bsim3v3" (
2
9.47E-07
0
-1.01E-14
5.4116
0.12647
0
5.3224
0.050774
0.089198
0.00036073
0.25824
1.11E-05
1.22E-06
2.74E-05
2.35E-15
5.10E-15
2.85E-15
6.39E-16
2.70E-15
2.35E-15
) PROP(
"model" "n_50n"
)
"Xopamp.Xbias.MN8" "bsim3v3" (
2
9.38E-07
-9.90E-15
-0.0024122
5.3723
4.1314
-0.11951
5.3422
0.039879
0.030076
0.00036072
0.25194
1.26E-05
1.00E-06
3.01E-05
2.35E-15
5.07E-15
2.66E-15
4.94E-16
2.57E-15
2.35E-15
) PROP(
"model" "n_50n"
)
"Xopamp.Xbias.MN9" "bsim3v3" (
2
9.38E-07
0
-1.00E-14
5.4116
0.11951
0
5.3229
0.050663
0.088737
0.00036069
0.25824
1.10E-05
1.27E-06
2.72E-05
2.35E-15
5.10E-15
2.85E-15
6.40E-16
2.70E-15
2.35E-15
) PROP(
"model" "n_50n"
)
"Xopamp.Xbias.MN10" "bsim3v3" (
0
0
-1.00E-14
-1.00E-14
7.3396
7.3396
-2.6599
9.6792
0.025439
-2.3395
0.00012487
0.16287
0
0
0
2.28E-15
4.87E-15
2.36E-15
2.33E-16
2.36E-15
2.28E-15
) PROP(
"model" "n_50n"
)
"Xopamp.Xbias.MN11" "bsim3v3" (
0
7.73E-25
-1.00E-14
-1.00E-14
4.8318
1.9999
-0.65997
6.639
0.02093
-1.8072
0.00024986
0.22745
1.80E-23
1.32E-24
3.89E-23
2.36E-15
5.00E-15
2.36E-15
2.92E-16
2.36E-15
2.36E-15
) PROP(
"model" "n_50n"
)
"Xopamp.Xbias.MN12" "bsim3v3" (
0
0
0
-1.00E-14
2.6599
0.65997
0
5.2872
0.017095
-2.6273
0.00037073
0.25824
0
0
0
2.36E-15
5.07E-15
2.36E-15
3.63E-16
2.36E-15
2.36E-15
) PROP(
"model" "n_50n"
)
"Xopamp.Xbias.MBM1" "bsim3v3" (
2
3.45E-06
0
-0.042494
5.1111
5.1111
0
4.9929
0.058194
0.11817
0.00039944
0.25824
3.40E-05
2.93E-06
8.55E-05
2.27E-15
5.04E-15
2.90E-15
6.84E-16
2.72E-15
2.27E-15
) PROP(
"model" "n_50n"
)
"Xopamp.Xbias.MBM2" "bsim3v3" (
2
3.90E-06
-5.66E-15
-0.046413
5.0619
5.0619
-0.021434
5.0482
0.035472
0.013647
0.0015923
0.25708
5.39E-05
4.37E-06
0.00013366
9.13E-15
2.00E-14
1.05E-14
1.92E-15
1.01E-14
9.13E-15
) PROP(
"model" "n_50n"
)
"Xopamp.Xbias.MBM3" "bsim3v3" (
2
-6.64E-06
0
0.04249
-4.957
-4.8889
0
-4.7364
-0.11148
-0.22059
0.00027024
0.29824
4.90E-05
1.41E-05
0.00013045
4.02E-15
8.96E-15
5.37E-15
1.69E-15
4.71E-15
4.04E-15
) PROP(
"model" "p_50n"
)
"Xopamp.Xbias.MBM4" "bsim3v3" (
2
-7.04E-06
0
0.046409
-4.957
-4.9167
0
-4.7303
-0.11391
-0.2267
0.0002705
0.29824
5.09E-05
1.47E-05
0.00013555
4.02E-15
8.96E-15
5.38E-15
1.69E-15
4.71E-15
4.04E-15
) PROP(
"model" "p_50n"
)
"Xopamp.Xbias.MA1" "bsim3v3" (
2
2.54E-06
0
-0.030886
5.0833
5.0932
0
4.9941
0.050932
0.0892
0.00040076
0.25824
2.78E-05
2.35E-06
6.97E-05
2.27E-15
5.02E-15
2.85E-15
6.50E-16
2.68E-15
2.27E-15
) PROP(
"model" "p_50n"
)
"Xopamp.Xbias.MA2" "bsim3v3" (
2
3.25E-06
0
-0.036662
5.1111
5.043
0
4.9974
0.057027
0.11366
0.00039909
0.25824
3.27E-05
2.80E-06
8.20E-05
2.30E-15
5.06E-15
2.90E-15
6.80E-16
2.71E-15
2.30E-15
) PROP(
"model" "p_50n"
)
"Xopamp.Xbias.MA3" "bsim3v3" (
2
-4.63E-06
0
0.030884
-4.9068
-4.9068
0
-4.7325
-0.093654
-0.17424
0.00027227
0.29824
3.98E-05
1.11E-05
0.00010562
4.02E-15
8.95E-15
5.33E-15
1.66E-15
4.69E-15
4.04E-15
) PROP(
"model" "p_50n"
)
"Xopamp.Xbias.MA4" "bsim3v3" (
2
-5.21E-06
0
0.03666
-4.9068
-4.957
0
-4.7215
-0.097814
-0.1853
0.00027277
0.29824
4.32E-05
1.22E-05
0.0001147
4.02E-15
8.95E-15
5.35E-15
1.67E-15
4.69E-15
4.04E-15
) PROP(
"model" "p_50n"
)
"Xopamp.Xbias.MCP" "bsim3v3" (
1
0
0
0
-4.957
0
0
-3.7641
-0.33598
-1.1929
4.78E-06
0.29824
0
0
0
7.61E-14
6.53E-14
7.69E-14
1.51E-13
4.39E-14
3.08E-14
) PROP(
"model" "p_50n"
)
"Xopamp.Xbias.MSU1" "bsim3v3" (
2
1.16E-06
0
-0.0020346
5.1111
3.9508
0
5.0696
0.040334
0.041462
0.00039309
0.25824
1.49E-05
1.20E-06
3.73E-05
2.35E-15
5.08E-15
2.71E-15
5.49E-16
2.59E-15
2.35E-15
) PROP(
"model" "p_50n"
)
"Xopamp.Xbias.MSU2" "bsim3v3" (
2
-1.26E-06
0
0.0020345
-6.0492
-6.0492
0
-4.0186
-0.58541
-2.0306
1.96E-06
0.29824
1.01E-06
7.87E-08
3.29E-06
4.00E-16
1.84E-15
2.07E-15
2.06E-15
1.44E-15
4.00E-16
) PROP(
"model" "p_50n"
)
"Xopamp.Xbias.MSU3" "bsim3v3" (
0
0
-1.00E-14
-1.00E-14
-1.1603
-0.068119
-5.1111
16.53
0.032511
-17.69
2.56E-05
0.10741
0
0
0
3.85E-16
7.99E-16
3.84E-16
2.95E-17
3.84E-16
3.85E-16
) PROP(
"model" "p_50n"
)
"Xopamp.Xbias.Rbias" "resistor" (
5.5000e3
21.4342e-3
3.8971e-6
83.5318e-9
) PROP(
"model" "resistor"
)
"VDD" "vsource" (
10.0000
-0.1925124
1.9251
) PROP(
"model" "vsource"
)
"Vin" "vsource" (
1.00000
0.0
0.00000
) PROP(
"model" "vsource"
)
"Rf" "resistor" (
1.0e6
0.0
0.0
0.0
) PROP(
"model" "resistor"
)
"Rin" "resistor" (
0.0100000
4.94826e-13
4.94826e-11
2.44853e-23
) PROP(
"model" "resistor"
)
"RL" "resistor" (
0.0100000
4.94826e-13
4.94826e-11
2.44853e-23
) PROP(
"model" "resistor"
)
"CL" "capacitor" (
10.0e-9
) PROP(
"model" "capacitor"
)
END
