HEADER
"PSFversion" "1.00"
"Log Generator" "drlLog rev. 1.0"
"Log Time Stamp" "Fri Apr 29 14:14:52 2016"
"simulator" "spectre"
"PSFversion" "1.00"
"date" "Fri Apr 29 14:14:52 2016"
TYPE
"analysisInst" STRUCT(
"analysisType" STRING *
"dataFile" STRING *
"format" STRING *
"parent" STRING *
"sweepVariable" ARRAY ( * ) STRING *
"description" STRING *
)
VALUE
"timeSweep" "analysisInst" (
"tran"
"timeSweep"
"PSF"
""
("time")
"Transient Analysis `tran': time = (0 s -> 5 ms)"
) PROP(
"data_type" "swept_scalar"
)

"frequencySweep" "analysisInst" (
"ac"
"frequencySweep"
"PSF"
""
()
"Frequency Sweep"
)
END
